Program Version,EnergyPlus, Version 9.6.0-316f894e91 (No OpenGL) (No OpenGL) (No OpenGL), YMD=2023.02.07 17:16
1,5,Environment Title[],Latitude[deg],Longitude[deg],Time Zone[],Elevation[m]
2,8,Day of Simulation[],Month[],Day of Month[],DST Indicator[1=yes 0=no],Hour[],StartMinute[],EndMinute[],DayType
3,5,Cumulative Day of Simulation[],Month[],Day of Month[],DST Indicator[1=yes 0=no],DayType  ! When Daily Meters Requested
4,2,Cumulative Days of Simulation[],Month[]  ! When Monthly Meters Requested
5,1,Cumulative Days of Simulation[] ! When Run Period Meters Requested
6,1,Calendar Year of Simulation[] ! When Annual Meters Requested
9,1,Electricity:Facility [J] !Hourly
87,1,InteriorLights:Electricity [J] !Hourly
21,1,ExteriorLights:Electricity [J] !Hourly
308,1,InteriorEquipment:Electricity [J] !Hourly
End of Data Dictionary
1,SPAWN-RUNPERIOD,  37.62,-122.40,  -8.00,   2.00
2,1, 1, 1, 0, 1, 0.00,60.00,Holiday
9,15220867.56624
21,8290800.0
87,990009.6523200001
308,5940057.91392
2,1, 1, 1, 0, 2, 0.00,60.00,Holiday
9,15220867.56624
21,8290800.0
87,990009.6523200001
308,5940057.91392
2,1, 1, 1, 0, 3, 0.00,60.00,Holiday
9,15220867.56624
21,8290800.0
87,990009.6523200001
308,5940057.91392
2,1, 1, 1, 0, 4, 0.00,60.00,Holiday
9,15220867.56624
21,8290800.0
87,990009.6523200001
308,5940057.91392
2,1, 1, 1, 0, 5, 0.00,60.00,Holiday
9,15220867.56624
21,8290800.0
87,990009.6523200001
308,5940057.91392
2,1, 1, 1, 0, 6, 0.00,60.00,Holiday
9,15220867.56624
21,8290800.0
87,990009.6523200001
308,5940057.91392
2,1, 1, 1, 0, 7, 0.00,60.00,Holiday
9,15220867.56624
21,8290800.0
87,990009.6523200001
308,5940057.91392
2,1, 1, 1, 0, 8, 0.00,60.00,Holiday
9,9693667.56624
21,2763600.0
87,990009.6523200001
308,5940057.91392
2,1, 1, 1, 0, 9, 0.00,60.00,Holiday
9,6930067.566240001
21,0.0
87,990009.6523200001
308,5940057.91392
2,1, 1, 1, 0,10, 0.00,60.00,Holiday
9,6930067.566240001
21,0.0
87,990009.6523200001
308,5940057.91392
2,1, 1, 1, 0,11, 0.00,60.00,Holiday
9,6930067.566240001
21,0.0
87,990009.6523200001
308,5940057.91392
2,1, 1, 1, 0,12, 0.00,60.00,Holiday
9,6930067.566240001
21,0.0
87,990009.6523200001
308,5940057.91392
2,1, 1, 1, 0,13, 0.00,60.00,Holiday
9,6930067.566240001
21,0.0
87,990009.6523200001
308,5940057.91392
2,1, 1, 1, 0,14, 0.00,60.00,Holiday
9,6930067.566240001
21,0.0
87,990009.6523200001
308,5940057.91392
2,1, 1, 1, 0,15, 0.00,60.00,Holiday
9,6930067.566240001
21,0.0
87,990009.6523200001
308,5940057.91392
2,1, 1, 1, 0,16, 0.00,60.00,Holiday
9,6930067.566240001
21,0.0
87,990009.6523200001
308,5940057.91392
2,1, 1, 1, 0,17, 0.00,60.00,Holiday
9,8311867.56624
21,1381800.0
87,990009.6523200001
308,5940057.91392
2,1, 1, 1, 0,18, 0.00,60.00,Holiday
9,15220867.56624
21,8290800.0
87,990009.6523200001
308,5940057.91392
2,1, 1, 1, 0,19, 0.00,60.00,Holiday
9,15220867.56624
21,8290800.0
87,990009.6523200001
308,5940057.91392
2,1, 1, 1, 0,20, 0.00,60.00,Holiday
9,15220867.56624
21,8290800.0
87,990009.6523200001
308,5940057.91392
2,1, 1, 1, 0,21, 0.00,60.00,Holiday
9,15220867.56624
21,8290800.0
87,990009.6523200001
308,5940057.91392
2,1, 1, 1, 0,22, 0.00,60.00,Holiday
9,15220867.56624
21,8290800.0
87,990009.6523200001
308,5940057.91392
2,1, 1, 1, 0,23, 0.00,60.00,Holiday
9,15220867.56624
21,8290800.0
87,990009.6523200001
308,5940057.91392
2,1, 1, 1, 0,24, 0.00,60.00,Holiday
9,15220867.56624
21,8290800.0
87,990009.6523200001
308,5940057.91392
End of Data
 Number of Records Written=          96
